version 2
run General-0-20240310-14:55:51-18716
attr configname General
attr datetime 20240310-14:55:51
attr experiment General
attr inifile omnetpp.ini
attr iterationvars ""
attr iterationvarsf ""
attr measurement ""
attr network Network
attr processid 18716
attr repetition 0
attr replication #0
attr resultdir results
attr runnumber 0
attr seedset 0

vector 0 Network.flc "delay vector" ETV
vector 1 Network.flc "result nescalat" ETV
vector 2 Network.flc "res scalat" ETV
vector 3 Network.flc "weight vector" ETV
vector 4 Network.sink "" ETV
vector 5 Network.sink "" ETV
vector 6 Network.sink "" ETV
0	9	0	15
0	37	1	15
0	59	2	15
0	81	3	15
0	103	4	15
0	125	5	15
0	147	6	15
0	169	7	15
0	193	8	15
0	219	9	15
0	243	10	15
0	265	11	15
0	287	12	15
0	313	13	15
0	335	14	15
0	357	15	15
0	379	16	15
0	401	17	15
0	423	18	15
1	9	0	34
1	37	1	34
1	59	2	34
1	81	3	34
1	103	4	34
1	125	5	34
1	147	6	34
1	169	7	34
1	193	8	34
1	219	9	34
1	243	10	34
1	265	11	34
1	287	12	34
1	313	13	34
1	335	14	34
1	357	15	34
1	379	16	34
1	401	17	34
1	423	18	34
2	9	0	1
2	37	1	1
2	59	2	1
2	81	3	1
2	103	4	1
2	125	5	1
2	147	6	1
2	169	7	1
2	193	8	1
2	219	9	1
2	243	10	1
2	265	11	1
2	287	12	1
2	313	13	1
2	335	14	1
2	357	15	1
2	379	16	1
2	401	17	1
2	423	18	1
3	9	0	5
3	37	1	5
3	59	2	5
3	81	3	5
3	103	4	5
3	125	5	5
3	147	6	5
3	169	7	5
3	193	8	5
3	219	9	5
3	243	10	5
3	265	11	5
3	287	12	5
3	313	13	5
3	335	14	5
3	357	15	5
3	379	16	5
3	401	17	5
3	423	18	5
4	12	0.05	50
4	195	8	41.254954342
5	15	0.1	100
5	221	9	14.396115161
6	18	0.15	150
6	303	12.6	40.692419526

